ITEM: TIMESTEP
46000
ITEM: NUMBER OF ATOMS
19582
ITEM: BOX BOUNDS ff ff ff
-2.55 2.55
-2.55 2.55
-0.05 5
ITEM: ATOMS id type x y z vx vy vz fx fy fz 
201 1 0.00933075 -0.195667 1.53332 -0.000170702 -0.000265168 0.000185569 0.00852572 -0.00882728 -0.0344813 
623 1 -0.101572 -0.159675 1.52102 -0.000125008 -0.000129469 6.1561e-05 0.0143586 -0.0020444 -0.0400259 
851 1 -0.0654623 -0.176443 1.52014 -0.00017815 -0.000224676 0.000329338 0.0101743 0.00116504 -0.0344114 
159 1 -0.0268728 -0.186269 1.51979 -0.000262947 -0.000386994 0.000254515 0.00961213 -0.00640215 -0.0397847 
1079 1 0.0182185 -0.159309 1.51966 -0.000184737 -0.000344066 0.000210969 0.0112925 -0.0124259 -0.0439243 
370 1 0.0505316 -0.182247 1.52113 -0.000124206 -0.000235414 0.000122575 0.00818656 -0.00880742 -0.0341629 
654 1 0.0931811 -0.164184 1.52039 -0.000120226 -0.000423389 4.2063e-05 0.0102664 -0.00883789 -0.0406513 
439 1 -0.133843 -0.136483 1.52537 -0.000118876 9.67916e-05 -0.000210376 0.0161398 0.001114 -0.0409013 
694 1 -0.0953699 -0.120827 1.52464 -0.000190495 -0.000274423 -0.000429778 0.0240685 -0.0166932 -0.0940299 
1333 1 -0.0517836 -0.138372 1.51997 2.9847e-32 -8.56703e-32 7.65155e-13 2.7491e-30 -7.97136e-30 0 
474 1 -0.00981511 -0.131381 1.51943 -0.000353791 -0.000648282 0.00022705 0.0257391 -0.0119184 -0.0637288 
325 1 0.0281982 -0.119147 1.51965 -0.000297521 -0.000634293 0.00016454 0.0290325 -0.00679999 -0.0525841 
254 1 0.0592908 -0.143528 1.5193 -0.000194339 -0.000435915 9.82061e-05 0.0178749 -0.00889104 -0.0499745 
960 1 0.0739699 -0.106596 1.51954 -0.000241166 -0.000882613 -6.58891e-05 0.0438977 -0.00766454 -0.0619777 
676 1 0.0983555 -0.130188 1.54056 -0.000215537 -0.00113916 -2.41188e-05 0.0481147 -0.0117125 -0.0894628 
1131 1 0.132419 -0.131721 1.51983 -0.000159981 -0.00042481 -3.10292e-05 0.0256612 -0.0167708 -0.0476997 
173 1 0.166311 -0.113142 1.54201 -0.000155633 -0.000536864 -0.000157067 0.045535 -0.00160903 -0.0527244 
1024 1 -0.166568 -0.0919891 1.52354 -0.000106019 0.000107823 -0.000401394 0.00805932 -0.0105794 -0.04095 
365 1 -0.127232 -0.097523 1.51944 -0.000105613 -6.1833e-05 -0.000573737 0.011042 -0.0160272 -0.0593117 
1199 1 -0.0943448 -0.0748505 1.51972 -0.000128887 -0.000122355 -0.0003306 0.016438 -0.0104546 -0.0515521 
1218 1 -0.0302431 -0.105101 1.54052 -0.000569869 -0.00113972 4.43064e-05 0.047873 -0.0166367 -0.0984121 
1339 1 -0.0628395 -0.0990067 1.51929 -0.000198051 -0.000436441 -0.000173673 0.0254863 -0.0146341 -0.0652348 
176 1 -0.0389034 -0.0666755 1.51975 -0.00030882 -0.000642922 -0.000116065 0.0217982 0.000438565 -0.0359036 
1328 1 6.44625e-05 -0.0914509 1.51958 -0.000355006 -0.000786094 5.97226e-05 0.0332699 -0.00570317 -0.0532404 
199 1 0.0749273 -0.0664981 1.51945 -0.000165756 -0.00102132 -0.000269137 0.0524428 -0.00276252 -0.0527992 
1044 1 0.0963241 -0.0868245 1.54555 -0.000243022 -0.00158332 -0.000405548 0.0904874 -0.0142422 -0.0983278 
608 1 0.140859 -0.0926852 1.51946 -0.000165878 -0.000575261 -0.000125022 0.0449781 -0.000251976 -0.0470614 
618 1 -0.196785 -0.0540758 1.54664 -0.000159156 8.10781e-05 -0.000842389 0.00840475 -0.0234631 -0.0370822 
122 2 -0.139508 -0.0407643 1.5387 -0.000154063 3.92681e-05 -0.000929591 0.114634 -0.208769 -0.56177 
670 1 -0.0698092 -0.0494989 1.53805 -0.000199036 -0.000376892 -0.000415098 0.029693 -0.00971597 -0.0707506 
1372 1 0.00909162 -0.0530576 1.51975 -0.000307384 -0.000905334 -0.000367953 0.044776 0.0013844 -0.0469962 
1130 1 -0.0170467 -0.0232659 1.51972 -0.000195386 -0.000826362 -0.000533393 0.0365952 -0.00153992 -0.0317674 
833 1 0.0461692 -0.0393537 1.51962 -0.000170232 -0.00123377 -0.000432116 0.0589979 0.00241456 -0.0482524 
791 1 0.0833838 -0.0316717 1.53796 -0.000127719 -0.0023234 -0.000972449 0.105507 0.0108436 -0.0669266 
222 1 0.114672 -0.0624968 1.51984 -8.54771e-05 -0.000859144 -8.22275e-05 0.0494439 -0.00252458 -0.0510608 
519 1 0.13447 -0.0418888 1.54761 1.74958e-05 -0.0015009 -0.000337788 0.092676 -0.00582561 -0.0689528 
755 1 0.158824 -0.0564418 1.51965 2.59995e-05 -0.000602257 -0.000243972 0.0421647 0.000659416 -0.0506668 
1060 1 0.187577 -0.0242428 1.52075 -8.78829e-06 -0.000336656 -0.00026241 0.0196918 0.00573067 -0.0125704 
417 1 0.192151 -0.0578437 1.5415 -0.000101142 -0.000303635 -0.000127328 0.0167973 -0.00420695 -0.0301098 
303 1 -0.193025 -0.0154759 1.52916 1.39968e-05 0.000129634 -0.00039456 0.0079247 -0.0166068 -0.0299461 
1288 1 -0.164147 0.0105307 1.51983 9.73642e-06 0.000204191 -0.000493915 -0.00733872 -0.0102677 -0.0379817 
1161 1 -0.116319 0.0134903 1.54588 -5.2695e-05 -7.54659e-06 -0.000697703 0.00815838 -0.0194786 -0.0781984 
552 1 -0.0943434 -0.00644967 1.5197 -2.63417e-05 -7.79534e-05 -0.000388204 0.012459 -0.00922108 -0.044171 
1195 1 -0.0561693 -0.017071 1.51964 -9.85797e-05 -0.000467457 -0.000400769 0.0274673 -0.00328353 -0.0426653 
578 1 0.00483961 0.00988038 1.51945 0.00021557 -0.00124012 -0.000632411 0.0682766 0.00406665 -0.0417457 
207 1 0.062639 -0.00336604 1.51927 9.44701e-05 -0.00157573 -0.000652468 0.0756597 0.00731151 -0.0437719 
944 1 0.0306841 -0.0103453 1.54158 0.000127013 -0.00206328 -0.000872737 0.105134 0.00398421 -0.0740401 
718 1 0.0877613 0.00669072 1.54796 0.000259347 -0.00274067 -0.00102582 0.126454 0.021331 -0.0526716 
226 1 0.109992 -0.009197 1.51934 -0.000111455 -0.00154391 -0.000699131 0.0661582 0.0141837 -0.0305293 
1362 1 0.137264 0.0201482 1.51994 -4.14461e-06 -0.000632143 -0.000367789 0.0264847 0.00148609 -0.00505759 
1119 1 0.148597 -0.0179145 1.51949 -2.04e-05 -0.000783901 -0.000413389 0.0440463 0.00761364 -0.0250835 
376 1 0.184639 0.0154556 1.51983 0.000122563 -0.000315936 -0.000270974 0.0283799 0.00828314 0.00108022 
855 1 -0.197084 0.0238918 1.53812 0.000203156 0.000705165 -8.53728e-05 -0.00255872 -0.0103806 -0.0224 
175 1 -0.177638 0.0537478 1.51997 -0.000389724 0.000593274 -0.000323465 0.00583594 -0.0144727 -0.0116178 
619 1 -0.0822655 0.0316053 1.51989 7.10058e-05 -0.000272504 -0.000269278 0.00769716 -0.0112282 -0.0520069 
1058 1 -0.0435537 0.0219246 1.51971 0.00015374 -0.000810745 -0.000460302 0.040366 -0.00536521 -0.0529613 
1307 1 -0.0143288 0.0350122 1.54327 0.0005369 -0.00177202 -0.00105566 0.0902226 -0.0020066 -0.0771779 
82 2 0.0441548 0.0476035 1.54368 0.000708916 -0.00231537 -0.00142184 0.946942 0.0846237 -0.535578 
445 1 0.0979131 0.0333999 1.51997 -0.000230177 -0.00113559 0.000302283 -0.00546064 -0.0266818 -0.0344357 
1187 1 0.128849 0.0589631 1.5196 0.000280276 -0.000690366 -0.000770388 0.0439735 0.0125209 -0.00436061 
649 1 0.168123 0.0529041 1.51954 0.000251528 -0.00062137 -0.000621476 0.0406819 0.0139691 0.00145407 
1099 1 0.197653 0.0438414 1.54443 0.000159979 -0.000686357 -0.000415471 0.0546974 0.0212302 -0.00499199 
449 1 -0.17633 0.0953426 1.53995 0.000136281 0.000329186 -0.000340899 -0.00035203 -0.00395454 -0.0298076 
58 2 -0.121728 0.072232 1.53935 0.000252495 0.000102835 -0.000502177 0.0295604 -0.0578737 -0.474838 
335 1 -0.0651762 0.0719416 1.51986 0.000225514 -0.000399462 -0.000243776 0.0104482 -0.0065355 -0.0266093 
352 1 -0.0260263 0.0646975 1.51948 0.000362957 -0.000985476 -0.000597446 0.0389114 -0.0025352 -0.0437707 
1260 1 -0.013068 0.103901 1.51963 0.00048035 -0.000862786 -0.000793729 0.028546 0.00363741 -0.029147 
297 1 0.0266287 0.104836 1.51955 0.000477309 -0.000913179 -0.000776757 0.0368813 0.00470464 -0.0286928 
644 1 0.0917538 0.073436 1.51938 0.000470786 -0.00112604 -0.000997319 0.0644084 0.0144003 -0.0169178 
1051 1 0.0794832 0.0988768 1.54739 0.000875169 -0.00146861 -0.00160408 0.0768441 0.0219048 -0.0251749 
205 1 0.117779 0.0855119 1.5466 0.000620842 -0.00149878 -0.00149892 0.0892385 0.0299234 -0.0123642 
807 1 0.166265 0.0925574 1.52321 0.000103843 -0.00055791 -0.000418572 0.02477 0.0131243 0.00541119 
657 1 -0.106643 0.146447 1.54446 0.000520753 -4.32358e-06 -0.00109621 -0.0194348 0.0034627 -0.0301598 
210 1 -0.0909645 0.119664 1.51972 0.000298219 -5.67011e-05 -0.000488693 -0.00144518 0.00333966 -0.0216362 
363 1 -0.0633512 0.137846 1.5451 0.000892767 -0.000387719 -0.00109505 -0.0152263 0.00950443 -0.0407996 
310 1 -0.0522851 0.110157 1.51935 0.000386274 -0.000354748 -0.000604369 0.00570178 0.00952614 -0.0276697 
759 1 -0.00579162 0.143089 1.51964 0.000553277 -0.000435579 -0.000568464 0.0177713 0.00358304 -0.0247288 
195 1 0.0339972 0.145414 1.51993 0.000570543 -0.000295015 -0.000609896 0.02193 0.0122239 -0.0182475 
1047 1 0.10462 0.110924 1.51931 0.00036898 -0.000802589 -0.000867945 0.0409963 0.0138638 -0.00792015 
414 1 0.0720933 0.133741 1.51953 0.000581101 -0.000429359 -0.000858039 0.0319744 0.0139178 -0.0116226 
754 1 0.141972 0.123817 1.51959 0.000113402 -0.000534459 -0.000409853 0.0224684 0.0140961 0.00474253 
189 1 -0.0844259 0.16799 1.51968 0.000323615 -9.2739e-05 -0.000481511 -0.00999952 0.00255714 -0.0125725 
998 1 -0.0421181 0.158979 1.51948 0.000482759 -0.000220322 -0.000526126 0.00257373 0.00467448 -0.0139194 
1069 1 -0.0143293 0.187503 1.51981 0.000312719 -0.000190479 -0.000221408 0.00476719 0.00219718 -0.00780884 
714 1 0.0122171 0.169334 1.54336 0.000934345 -0.000729615 -0.000723074 0.0226937 0.00272228 -0.0307441 
1092 1 0.0537588 0.180157 1.51981 0.000497677 -0.000309361 -0.0005568 0.02151 0.0100752 -0.0111191 
334 1 0.109889 0.152881 1.51995 0.000331749 -0.000717979 -0.000539074 0.0284816 0.00433333 0.000802681 
971 1 -0.0572709 0.190581 1.53794 0.000477526 -0.000103099 -0.000714147 -0.010988 0.00412991 -0.00998952 
902 1 0.0348405 0.201553 1.54776 0.000615984 -0.000450351 -0.000507312 0.0149386 0.00504656 -0.0120305 
1299 1 -0.078534 -0.192499 1.55431 2.75682e-05 -6.43625e-05 0.000619555 -0.00748641 0.0421827 -0.0212345 
746 1 -0.095434 -0.206566 1.5877 0.00194642 -0.00123362 0.00147464 -0.0307149 0.0702772 -0.000229819 
364 1 -0.0446505 -0.212075 1.56835 -0.000380684 -0.00053211 0.00028722 0.0123684 -0.000988512 -0.0533234 
266 1 -0.0049276 -0.21464 1.56552 -0.000206161 -0.000216086 0.00020675 0.00874868 -0.00184708 -0.0296714 
1169 1 0.0343717 -0.209472 1.56088 -0.000220883 -0.000326443 0.000201035 0.0164209 -0.012347 -0.0532745 
547 1 0.0706015 -0.19502 1.55287 -0.000190196 -0.000314864 0.000168643 0.0179643 -0.0148223 -0.0523873 
1302 1 0.0805636 -0.212615 1.58702 -0.000232831 -0.00042366 0.00012813 0.0301905 -0.0158474 -0.063596 
1118 1 -0.0879454 -0.167349 1.58564 0.000307292 3.69022e-05 0.00254711 -0.0262671 0.117385 -0.0436148 
46 2 -0.025727 -0.155946 1.57126 -0.000855889 -0.00111207 0.000535982 0.405274 -0.120343 -1.01167 
587 1 0.0326199 -0.170356 1.55488 -0.000480437 -0.000792452 0.000394491 0.0404129 -0.0222268 -0.0978746 
741 1 0.0312063 -0.150912 1.58941 -0.00073256 -0.00126697 0.00053367 0.0894143 -0.0230851 -0.150719 
1036 1 0.070107 -0.155189 1.55508 -0.000474247 -0.000844636 0.00032022 0.0505949 -0.0281515 -0.117992 
611 1 0.105872 -0.177011 1.55583 -0.000195875 -0.000519768 0.000108714 0.0262771 -0.017144 -0.0598419 
462 1 0.138183 -0.154023 1.55233 -0.000134979 -0.000573486 -0.000103305 0.0322608 -0.0110559 -0.0632018 
1012 1 0.133716 -0.181464 1.58378 -0.000265674 -0.000583808 5.88396e-05 0.0379034 -0.0144203 -0.0768829 
596 1 -0.163975 -0.142957 1.56926 -0.000240568 4.38527e-05 -0.00046422 0.0129675 -0.0165063 -0.0415961 
85 2 -0.118737 -0.106216 1.57756 -0.000627246 -2.0434e-05 -0.00122003 0.322744 -0.404505 -0.996757 
170 1 -0.0816257 -0.145915 1.55253 -0.000620496 -0.000463668 0.000316092 0.0323857 -0.00304624 -0.106418 
942 1 0.00642868 -0.107979 1.55522 -0.000610767 -0.00171522 5.98435e-05 0.0798731 -0.0218065 -0.129778 
520 1 0.0386181 -0.131093 1.55595 -0.000684417 -0.0013001 0.000286343 0.0719213 -0.0189929 -0.118982 
506 1 0.0533637 -0.113823 1.58964 -0.000569666 -0.00231342 -4.44831e-06 0.129843 -0.0207435 -0.187758 
1241 1 0.0959309 -0.112205 1.57601 -0.000323378 -0.00166427 -0.000250583 0.0987223 -0.0290605 -0.134148 
690 1 0.128792 -0.107999 1.55399 -0.000315379 -0.00120902 -0.000221982 0.0732062 -0.0124014 -0.0999561 
726 1 0.132297 -0.132211 1.58516 -0.000433542 -0.00123649 -0.000259262 0.071262 -0.0224927 -0.135315 
1116 1 0.169112 -0.138772 1.57217 -0.000264792 -0.000493618 -0.000186105 0.0330994 -0.00396451 -0.0664768 
1231 1 -0.210492 -0.0720326 1.57884 -0.000132335 7.4976e-05 -0.000765313 0.0163706 -0.0230638 -0.0237641 
203 1 -0.183169 -0.10302 1.55819 -0.000139563 0.000406233 -6.22719e-05 0.0239474 0.0204564 -0.0291338 
1073 1 -0.0636872 -0.0960034 1.55863 -0.000579062 -0.000809555 -0.000514483 0.0459972 -0.031116 -0.12303 
382 1 -0.0296949 -0.0968222 1.57938 -0.000667401 -0.00166205 -0.000126399 0.0913539 -0.0136971 -0.158115 
1023 1 -0.0581831 -0.068916 1.58687 -0.000475275 -0.00149596 -0.000904515 0.0844078 -0.0306124 -0.180802 
743 1 -0.0151891 -0.0702674 1.55143 -0.000452252 -0.00151764 -0.000245702 0.0831435 -0.0124881 -0.0999812 
272 1 0.0577459 -0.0963172 1.55419 -0.000445142 -0.00189984 -0.000167572 0.10521 -0.014131 -0.117029 
797 1 0.0244122 -0.0745953 1.56674 -0.000198884 -0.00262538 -0.000376889 0.133638 -0.0275618 -0.159026 
466 1 0.0802042 -0.0759147 1.58002 -0.000151518 -0.00257065 -0.000687778 0.146148 -0.012521 -0.130439 
239 1 0.12015 -0.0695881 1.57205 -8.36524e-05 -0.00205467 -0.000576185 0.127751 -0.00625778 -0.112593 
1192 1 0.154188 -0.0769522 1.55326 -0.000124571 -0.00115747 -0.000405356 0.100956 0.0123398 -0.0908389 
647 1 0.15959 -0.10182 1.58408 -0.0038688 -0.00187167 -0.000123061 0.148385 0.0263563 -0.111842 
1368 1 0.192366 -0.0913403 1.56288 -0.000184439 -0.000328294 -0.000169961 0.0212175 -0.00603105 -0.0420367 
1094 1 0.215665 -0.0660252 1.58381 0.000135801 -0.000665825 -0.000309863 0.0487086 0.0243822 -0.0362097 
1122 1 -0.0911585 -0.0534251 1.5712 -0.00031401 -0.000395476 -0.000831271 0.03871 -0.0430667 -0.126259 
1146 1 -0.0354218 -0.0358246 1.55302 -7.25913e-05 -0.001157 -0.000460658 0.076991 -0.0232519 -0.045493 
661 1 0.00819285 -0.0389562 1.55677 -2.66794e-05 -0.00219423 -0.000788353 0.115783 -0.00776278 -0.118276 
772 1 0.0572121 -0.0566736 1.55368 -0.000225732 -0.00228622 -0.000504592 0.12329 -0.0145943 -0.104238 
331 1 0.104683 -0.0315196 1.57175 3.78063e-05 -0.00289491 -0.00109316 0.146767 -0.00440885 -0.0903644 
957 1 0.175652 -0.0590939 1.58121 0.000211781 -0.00154557 -0.000917153 0.123378 0.0392841 -0.120144 
1197 1 0.200705 -0.0296778 1.58965 0.000426755 -0.00135466 -0.00113042 0.102889 0.0402072 -0.0473493 
750 1 -0.122756 -0.00287741 1.5816 -0.000190225 -0.000385827 -0.00163873 0.0374421 -0.0432646 -0.127965 
411 1 -0.0905879 -0.0148069 1.56129 -2.68411e-05 -0.000538803 -0.000826541 0.0488164 -0.0368005 -0.107322 
800 1 -0.0746688 0.0105896 1.58816 0.000803503 -0.00127524 -0.000885226 0.0909656 -0.0707703 -0.196719 
1140 1 -0.0569369 0.00459246 1.55288 0.000275664 -0.00136927 -0.000791138 0.0841418 -0.0238203 -0.10626 
560 1 -0.043024 -0.0136394 1.58548 0.000539724 -0.00205541 -0.00100032 0.132666 -0.0388491 -0.183173 
271 1 -0.0119948 -0.00350339 1.55366 0.000360809 -0.00176516 -0.00115889 0.107098 -0.00834612 -0.0706164 
751 1 0.00735554 0.0184319 1.58034 0.000832981 -0.00275629 -0.00205853 0.150105 -0.00194468 -0.119972 
489 1 0.0343456 -0.0198662 1.57973 0.000239692 -0.00310574 -0.00145637 0.153007 -0.0104563 -0.123924 
910 1 0.0728263 -0.00942471 1.58095 0.000333013 -0.0035794 -0.00169016 0.168994 0.0026141 -0.0965665 
889 1 0.126731 -0.0029871 1.55451 0.000254597 -0.00287013 -0.00152746 0.140747 0.0436761 -0.0576534 
1226 1 0.16835 -0.00873689 1.55242 0.000480295 -0.0016184 -0.0012807 0.10007 0.0361405 -0.0383089 
459 1 0.207566 -0.014227 1.55384 0.000302495 -0.000913944 -0.000758315 0.0659345 0.0214371 -0.0265984 
883 1 0.194532 0.0175492 1.57411 0.000337334 -0.00147829 -0.00110497 0.106413 0.0381562 -0.0224931 
621 1 -0.159777 0.0243077 1.55691 8.07888e-05 0.000604445 -0.00122158 -0.0169749 -0.00831548 -0.0862746 
1268 1 -0.106802 0.0336641 1.58263 0.000447856 -0.000607534 -0.00101423 0.0562649 -0.0518271 -0.147476 
779 1 -0.0745342 0.0401084 1.55814 0.000336752 -0.000937893 -0.00079206 0.0732869 -0.0362565 -0.134972 
281 1 -0.0320378 0.0238449 1.57689 0.000725807 -0.00231147 -0.00172952 0.120626 -0.0206511 -0.130493 
976 1 0.000932103 0.0591872 1.58341 0.00102496 -0.00272969 -0.00191943 0.120717 -0.000868536 -0.0959213 
1371 1 0.107817 0.0236957 1.57726 0.000838841 -0.00320927 -0.00203249 0.162109 0.0381457 -0.0438705 
469 1 0.131518 0.0531811 1.56528 0.000658745 -0.00227998 -0.00184656 0.130788 0.0346811 0.00345618 
1056 1 0.160814 0.0302301 1.55137 0.000563469 -0.00155724 -0.00117168 0.100444 0.0275689 -0.00376398 
428 1 0.164859 0.0517405 1.59083 0.000986319 -0.00235533 -0.00198576 0.163723 0.0472724 0.0152459 
328 1 0.226505 0.0350421 1.59034 0.000180012 -0.000581217 -0.000567082 0.0484307 0.0185073 0.0133681 
12 2 -0.193948 0.063407 1.58682 0.000157862 0.000195683 -0.00095095 0.120592 -0.14002 -0.39735 
1112 1 -0.0708561 0.0998561 1.55263 0.000819358 -0.00058576 -0.00106927 0.0145982 -0.00647878 -0.0735134 
191 1 -0.0283669 0.068825 1.55859 0.000798368 -0.0018549 -0.00143956 0.0776343 -0.00440159 -0.0837462 
979 1 -0.062145 0.0719574 1.57884 0.000886735 -0.0013741 -0.0020684 0.0563371 -0.0285485 -0.138717 
965 1 -0.0285827 0.0918536 1.59095 0.00164171 -0.00196968 -0.00265134 0.059444 0.0171095 -0.126839 
1123 1 0.0041389 0.0911287 1.55304 0.001032 -0.00187739 -0.00160875 0.079471 0.00610961 -0.066037 
1340 1 0.0941463 0.0656819 1.57102 0.00105254 -0.00286047 -0.00221133 0.143497 0.0275762 -0.0309966 
1256 1 0.0673945 0.0982549 1.585 0.00160982 -0.00213723 -0.00263158 0.0990676 0.030137 -0.0390244 
426 1 0.106687 0.102724 1.58041 0.00142001 -0.0020307 -0.00246075 0.108601 0.0406992 -0.0121237 
620 1 0.142965 0.0848114 1.58656 0.00101615 -0.00210062 -0.00196635 0.144018 0.0296165 0.0593941 
485 1 0.16649 0.0694906 1.55553 0.000510589 -0.00146924 -0.00101811 0.0900543 0.0350276 0.0114467 
1221 1 0.186628 0.103009 1.56251 0.000296337 -0.000838299 -0.000702887 0.0396177 0.0240372 0.0192692 
404 1 0.206067 0.0660237 1.5761 0.000232436 -0.000707119 -0.000516681 0.0511 0.0173775 0.0221801 
28 2 -0.151097 0.132757 1.58177 0.00051431 0.000257753 -0.00100864 -0.0135813 -0.0862332 -0.196819 
784 1 -0.0737605 0.112761 1.59031 0.00175722 -0.000859256 -0.00184747 -0.00261033 -0.0316459 -0.112404 
277 1 -0.0329083 0.134695 1.58388 0.00179068 -0.00130433 -0.0024079 -0.00609427 0.0155352 -0.0875972 
849 1 -0.0319263 0.108284 1.55427 0.00110714 -0.00146762 -0.00144972 0.0316378 0.00318427 -0.0714616 
521 1 0.0107053 0.130922 1.55354 0.00143496 -0.0012796 -0.0017793 0.0552124 0.00634201 -0.0624007 
705 1 0.0147067 0.109509 1.58665 0.00204016 -0.00218849 -0.00279987 0.0864896 0.0250243 -0.0857347 
1384 1 0.0411609 0.105521 1.55618 0.00121773 -0.00164133 -0.00170843 0.0786709 0.0121094 -0.0510496 
985 1 0.113729 0.130088 1.55254 0.00106431 -0.00118922 -0.00168043 0.0570055 0.025269 -0.00292087 
1017 1 0.120401 0.14169 1.58989 0.00177726 -0.00120845 -0.00244876 0.0529452 0.0302037 0.0199507 
540 1 0.148234 0.109007 1.55543 0.000473081 -0.00144225 -0.0013123 0.0608053 0.0344731 0.0285386 
860 1 0.158168 0.127585 1.58878 0.00113698 -0.0014662 -0.00194047 0.0718457 0.0360005 0.0635431 
36 2 -0.0787985 0.172502 1.59043 0.00123626 -0.000349358 -0.00193439 -0.310099 0.0167337 -0.29847 
673 1 -0.025095 0.161753 1.55552 0.00149917 -0.00131332 -0.000976779 0.0131295 0.000277314 -0.055265 
251 1 0.00234361 0.153144 1.58549 0.00227112 -0.00165448 -0.00223295 0.0220059 0.0146115 -0.0829181 
93 2 0.0647811 0.156963 1.57379 0.00163852 -0.00114145 -0.00173833 0.335468 0.130551 -0.199695 
276 1 0.120607 0.176862 1.56482 0.000646957 -0.000735765 -0.000889094 0.0216852 0.0150691 -0.00164686 
559 1 0.148197 0.149003 1.55711 0.000491685 -0.000745553 -0.000935575 0.0205903 0.0136472 0.0198032 
1289 1 -0.0406839 0.211913 1.56709 0.00069506 -0.000239078 -0.000746346 -0.013749 0.00194993 -0.00902186 
959 1 0.0159137 0.190359 1.58253 0.00163782 -0.000978293 -0.00125072 0.0114302 0.00723352 -0.0404607 
418 1 -0.00405818 0.207347 1.55269 0.000577208 -0.000289272 -0.000386815 0.00344973 0.00123745 -0.0102482 
1196 1 0.0553763 0.215549 1.57851 0.000758548 -0.000529608 -0.000579146 0.0118846 0.00113393 -0.00299575 
1398 1 -0.0706899 -0.232039 1.61347 -9.82554e-05 -0.000547522 0.000217653 -0.0302711 -0.0100939 -0.081168 
674 1 -0.031231 -0.232231 1.59959 -0.000161491 -0.000375796 0.000103984 0.00900633 -0.0068668 -0.0531801 
216 1 0.00324026 -0.249072 1.62526 -6.85614e-05 -0.000335501 1.87072e-05 0.00311802 -0.0112023 -0.0603197 
551 1 -0.055879 -0.196376 1.60351 -0.00045892 -0.000808077 0.000802422 -0.0244516 -0.00959745 -0.145872 
838 1 -0.00277388 -0.21068 1.61698 -0.000334204 -0.000694976 0.000190328 0.0271332 -0.0264092 -0.136367 
359 1 0.0228382 -0.229701 1.5932 -0.000153734 -0.000287929 0.000120387 0.0187959 -0.0126536 -0.061117 
856 1 0.0401013 -0.193001 1.59616 -0.000449018 -0.000723075 0.000436041 0.0576144 -0.0169092 -0.116365 
1224 1 0.116848 -0.210026 1.60976 -0.000121596 -0.000683151 0.000182047 0.0497489 -0.0231413 -0.093872 
105 2 -0.146232 -0.168704 1.61993 -0.000208742 -0.000211412 -0.000598604 0.0609907 -0.134533 -0.401894 
658 1 -0.0870925 -0.180969 1.6232 0.0012809 -0.000461513 0.0027241 0.0229048 0.0882018 -0.0411612 
307 1 0.011183 -0.173583 1.61504 -0.000743728 -0.001024 0.000582304 0.0576481 -0.0181716 -0.156312 
378 1 -0.0196816 -0.155661 1.63201 -0.000927432 -0.00127767 0.000486916 0.0506985 -0.0286654 -0.207988 
45 2 0.0860682 -0.158656 1.61197 -0.000302614 -0.00118593 0.000210676 0.736557 -0.210246 -1.3617 
129 2 0.164842 -0.157386 1.62866 -0.000143058 -0.000402805 -0.000489134 0.768016 -0.0198319 -1.18395 
1034 1 -0.190229 -0.135178 1.59768 -0.00016056 -6.02646e-05 -0.000371487 0.00853116 -0.0118721 -0.0211965 
664 1 -0.209101 -0.13308 1.63254 -0.000626822 -0.000170086 -0.00120231 0.00734703 -0.0362171 -0.0173476 
882 1 -0.0951665 -0.138036 1.62129 -0.000772539 -0.000400923 -0.00103178 0.043982 -0.0601053 -0.147007 
522 1 -0.0566368 -0.146513 1.62157 -0.000980002 -0.000820807 2.21845e-05 0.0505451 -0.0462497 -0.175358 
435 1 -0.061966 -0.114479 1.59502 -0.00119825 -0.000480555 0.000142128 0.063982 -0.0120379 -0.161628 
329 1 0.0146573 -0.105568 1.59409 -0.000649904 -0.00254798 -2.44854e-05 0.131657 -0.0263714 -0.188065 
584 1 -0.0150791 -0.119389 1.61671 -0.000834471 -0.00179738 8.69909e-05 0.108569 -0.0201294 -0.192421 
700 1 0.0259601 -0.131216 1.62328 -0.000411332 -0.00198626 0.000413311 0.135221 -0.0186443 -0.209796 
812 1 0.124364 -0.11412 1.61954 -8.08193e-05 -0.00176689 -0.000723452 0.120614 -0.0184893 -0.177283 
1150 1 0.197095 -0.118426 1.59153 -1.5581e-06 -0.000421957 -0.000493527 0.0358276 0.012078 -0.0542414 
1204 1 0.215862 -0.125654 1.62559 0.000129319 -0.000134794 -0.00142995 0.0766007 0.0222344 -0.111716 
951 1 -0.212671 -0.103158 1.60282 -0.000268565 4.08403e-05 -0.000748919 0.00787078 -0.0217909 -0.0146436 
1074 1 -0.209739 -0.0666995 1.61842 -0.000818259 0.000100887 -0.00203178 0.0371788 -0.0469771 -0.0415585 
809 1 -0.0844927 -0.0999154 1.62556 -0.00104963 -0.000700735 -0.00136326 0.0920055 -0.067339 -0.185242 
923 1 -0.06935 -0.0633186 1.62445 -0.000491726 -0.0015553 -0.00154989 0.113241 -0.0434413 -0.200733 
997 1 -0.0452671 -0.0959944 1.62714 -0.00076701 -0.00161479 -0.0006227 0.117719 -0.0334252 -0.22422 
867 1 0.144619 -0.0644255 1.60545 0.000204643 -0.00256045 -0.00159122 0.163934 0.0203236 -0.155841 
768 1 0.108069 -0.0800503 1.60795 -8.92066e-06 -0.00280825 -0.001201 0.161403 -0.00142895 -0.165591 
1168 1 0.158109 -0.0958745 1.62723 -1.64478e-05 -0.00179332 -0.00204845 0.123574 0.0114568 -0.190824 
766 1 0.190515 -0.0833736 1.60883 -1.85446e-05 -0.00114902 -0.000965083 0.0687866 0.0417661 -0.112339 
579 1 0.228975 -0.0878249 1.61874 0.000124191 -0.000567914 -0.000251149 0.0278009 0.0270133 -0.0363996 
835 1 -0.243806 -0.0288036 1.61855 -0.000370425 0.000125962 -0.00121805 0.0242538 -0.0236158 -0.0187626 
443 1 -0.150004 -0.0357925 1.62983 -0.00104224 -0.000214161 -0.0029656 0.0525437 -0.0738295 -0.126582 
533 1 -0.142889 -0.0550118 1.59631 -0.000599788 2.58615e-05 -0.0018559 0.0399381 -0.0609224 -0.10832 
1063 1 -0.0779408 -0.0277894 1.59887 0.00115326 -0.00111668 0.000345319 0.107632 -0.0805342 -0.237912 
1117 1 -0.104961 -0.0567749 1.60812 -0.000649938 -0.000485414 -0.00161148 0.0662764 -0.0687017 -0.145277 
87 2 -0.00681897 -0.0528601 1.61259 -3.7424e-05 -0.00268303 -0.00108023 1.16977 -0.18678 -1.58285 
541 1 0.0492954 -0.0544276 1.59237 -6.34554e-05 -0.00322006 -0.00105121 0.158802 -0.0138784 -0.154858 
259 1 0.0555409 -0.0219434 1.61433 0.000477983 -0.0035463 -0.00237822 0.177564 -0.00642442 -0.135619 
264 1 0.0862335 -0.0450285 1.60428 0.00018276 -0.00325744 -0.00135441 0.171384 -0.00572371 -0.134456 
421 1 0.117078 -0.048053 1.62915 0.000723249 -0.00299644 -0.00212638 0.191864 0.0165478 -0.143622 
859 1 0.209401 -0.0541799 1.62784 0.000317712 -0.001011 -0.000980151 0.0746562 0.0533394 -0.0719601 
212 1 0.236299 -0.0337034 1.60668 0.000171198 -0.000526456 -0.000620531 0.0512438 0.0177958 -0.0180243 
826 1 -0.237916 0.0194169 1.60675 -5.11679e-05 0.000114226 -0.000981654 0.0159513 -0.0236293 -0.0244471 
23 2 -0.19205 -0.0159756 1.59229 -0.000361861 0.000208106 -0.00188878 0.176516 -0.317382 -0.531306 
180 1 -0.0534447 0.00964724 1.62446 0.000549204 -0.00235823 -0.00294797 0.116217 -0.0288292 -0.226353 
375 1 -0.0171606 0.00587244 1.60897 0.000810591 -0.00275507 -0.00233069 0.152136 -0.0149784 -0.163462 
245 1 0.0218685 -0.000772351 1.61189 0.000812413 -0.00323334 -0.0026107 0.171201 -0.00710763 -0.140611 
230 1 0.0863931 0.0148885 1.6096 0.00107332 -0.00360256 -0.00256059 0.188368 0.0282187 -0.0723873 
77 2 0.150688 -0.00323213 1.60902 0.000816063 -0.00273204 -0.00216195 1.44466 0.351215 -0.44698 
384 1 0.210017 0.00395395 1.6084 0.000521565 -0.00125163 -0.00143611 0.111743 0.0343986 -0.00984379 
811 1 0.247407 0.0013088 1.62184 0.00031186 -0.000472789 -0.000684083 0.0546341 0.0182394 0.00881446 
433 1 -0.241264 0.055759 1.62239 -0.000119859 6.14384e-05 -0.00108586 0.0234222 -0.0200716 -0.00465505 
268 1 -0.206966 0.0259962 1.63132 -0.000328277 -1.17098e-05 -0.00253794 0.0489174 -0.0409835 -0.0363342 
730 1 -0.153024 0.0507642 1.6287 0.000331943 -0.000515475 -0.00230809 0.0636487 -0.0433631 -0.125339 
241 1 -0.145628 0.028668 1.59388 0.000224464 0.000180688 -0.00203837 0.0231626 -0.031589 -0.140768 
672 1 -0.0768921 0.0464034 1.60571 0.00113277 -0.00154852 -0.00210203 0.0718709 -0.0606747 -0.195093 
431 1 -0.0374399 0.0530739 1.603 0.00124956 -0.00227929 -0.0028093 0.109688 -0.0136114 -0.168417 
497 1 0.0121027 0.0376551 1.61469 0.00136134 -0.00326182 -0.00313012 0.156606 0.00390945 -0.133119 
524 1 0.0493662 0.0239829 1.59809 0.00104194 -0.00336551 -0.0027024 0.167309 0.0127751 -0.0930886 
564 1 0.0472191 0.0474981 1.63007 0.00167198 -0.00347019 -0.0038196 0.15856 0.022935 -0.100709 
1259 1 0.0758815 0.05295 1.60351 0.00156252 -0.0037228 -0.00314324 0.167489 0.0313181 -0.0583816 
1174 1 0.11555 0.0534019 1.60204 0.00167436 -0.00351253 -0.00326378 0.184037 0.0482834 -0.0266302 
961 1 0.191683 0.0395839 1.61778 0.000711213 -0.00216455 -0.00176188 0.149649 0.0351505 0.0213985 
799 1 0.229446 0.0359192 1.63011 0.000367673 -0.000901059 -0.000967954 0.088803 0.0241839 0.0288256 
429 1 -0.155903 0.0903186 1.62396 0.00103739 -0.000229938 -0.00130121 0.0502527 -0.00489175 -0.115111 
1341 1 -0.13512 0.0670902 1.59732 0.000529279 0.000241729 -0.0010313 0.0358562 -0.0435867 -0.101733 
188 1 -0.10797 0.0681713 1.62978 0.00135773 -0.000608537 -0.00150984 0.0978815 -0.0696374 -0.169201 
1213 1 -0.0980759 0.0809542 1.59325 0.000950513 -0.000334716 -0.0015496 0.0373304 -0.04385 -0.119135 
793 1 -0.0661021 0.0835198 1.61642 0.00194799 -0.00149982 -0.00312099 0.0505947 -0.0325842 -0.154899 
662 1 0.00185145 0.0860963 1.61603 0.002064 -0.00266624 -0.00388245 0.0966185 0.0380367 -0.137061 
257 1 0.0349137 0.0762647 1.59532 0.0015663 -0.00265974 -0.00255911 0.123738 0.0200244 -0.0724415 
252 1 0.0628204 0.0856595 1.62196 0.00226003 -0.00309702 -0.00413281 0.141573 0.0441704 -0.0551837 
538 1 0.14638 0.0653492 1.62351 0.0015375 -0.00283022 -0.00305979 0.172655 0.0417756 0.0264517 
834 1 0.10705 0.101009 1.61982 0.00248249 -0.0027854 -0.00369633 0.155624 0.0568033 -0.00215533 
1029 1 0.149282 0.105249 1.62001 0.00181069 -0.00180331 -0.00271207 0.166416 0.0337374 0.0936027 
921 1 0.182677 0.078339 1.61424 0.000971623 -0.0018503 -0.00189708 0.128176 0.0344205 0.0644632 
1166 1 0.208953 0.100676 1.59501 0.00043921 -0.000631728 -0.000733371 0.041671 0.0198167 0.0380282 
638 1 0.22969 0.0698361 1.6092 0.000254129 -0.000500284 -0.000673725 0.0483213 0.0191828 0.0397117 
640 1 -0.204717 0.119453 1.60427 0.000286153 0.000165527 -0.000786395 0.00787418 -0.0157887 -0.00788825 
396 1 -0.229776 0.106528 1.63217 5.19217e-05 0.000190729 -0.0016617 0.0151883 -0.0273854 0.0110348 
1091 1 -0.113166 0.10649 1.61961 0.00141315 0.000164362 -0.00209992 0.0222851 -0.0326076 -0.0880513 
1206 1 -0.112625 0.144834 1.63066 0.0013122 6.14691e-05 -0.00289799 -0.0183054 -0.00418545 -0.0308762 
895 1 -0.0444846 0.116848 1.61746 0.00219468 -0.00149672 -0.00329955 0.0174228 0.00353307 -0.122401 
991 1 0.00478546 0.131166 1.6185 0.00273348 -0.00231517 -0.00348052 0.0341928 0.0376819 -0.0942371 
696 1 0.0423034 0.118802 1.61383 0.00257845 -0.00258955 -0.0034649 0.077204 0.0407643 -0.0587449 
605 1 0.0969849 0.142799 1.6222 0.00265571 -0.00211875 -0.00331338 0.0651716 0.000216056 -0.029284 
261 1 0.193964 0.136191 1.60399 0.000776395 -0.000919881 -0.00119875 0.0528727 0.033964 0.0439003 
668 1 0.225268 0.111841 1.629 0.00046702 -0.000347401 -0.000834372 0.031049 0.0191799 0.0532104 
1222 1 -0.0253453 0.157084 1.61601 0.0024082 -0.00135465 -0.00317386 -0.0230459 0.00808585 -0.065217 
476 1 0.0240794 0.169769 1.61562 0.00296982 -0.0019054 -0.00238209 0.000650253 0.0270943 -0.0507188 
903 1 0.0565851 0.154262 1.63306 0.00322153 -0.00247661 -0.00261938 0.0657823 0.0643221 -0.0267625 
312 1 -0.124779 0.205251 1.60899 0.000608017 -9.75192e-06 -0.00124714 -0.0168947 -0.000649604 0.00160968 